                         Program Version 4.0.1.2 - RELEASE -
|  1> ! PAL4 B3LYP Def2-SVP Opt Freq
|  2>
|  3> #Water optimisation and frequency analysis
|  4>
|  5> *int 0 1
|  6> O 0 0 0 0.0    0.0 0.0
|  7> H 1 0 0 0.95   0.0 0.0
|  8> H 1 2 0 0.95 104.0 0.0
|  9> *
| 10>
| 11>                          ****END OF INPUT****
 Total Charge           Charge          ....    0
 Multiplicity           Mult            ....    1
 Number of Electrons    NEL             ....   10
FINAL SINGLE POINT ENERGY       -76.320611999736
FINAL SINGLE POINT ENERGY       -76.321141431388
FINAL SINGLE POINT ENERGY       -76.321153960716
FINAL SINGLE POINT ENERGY       -76.321158930496
                    ***********************HURRAY********************

CARTESIAN COORDINATES (ANGSTROEM)
---------------------------------
  O     -0.006703   -0.008516    0.000000
  H      0.960258   -0.001119    0.000000
  H     -0.233381    0.931416    0.000000

 Multiplicity           Mult            ....    1
 Number of Electrons    NEL             ....   10
 Basis Dimension        Dim             ....   24

ORBITAL ENERGIES
----------------

  NO   OCC          E(Eh)            E(eV)
   0   2.0000     -19.115375      -520.1558
   1   2.0000      -0.975967       -26.5574
   2   2.0000      -0.507915       -13.8211
   3   2.0000      -0.364354        -9.9146
   4   2.0000      -0.287720        -7.8292
   5   0.0000       0.047391         1.2896
   6   0.0000       0.126430         3.4403
   7   0.0000       0.558373        15.1941
   8   0.0000       0.623462        16.9653
   9   0.0000       0.920471        25.0473

MULLIKEN ATOMIC CHARGES
-----------------------
   0 O :   -0.291738
   1 H :    0.145916
   2 H :    0.145822
Sum of atomic charges:    0.0000000

LOEWDIN ATOMIC CHARGES
----------------------
   0 O :   -0.149411
   1 H :    0.074745
   2 H :    0.074666

  Mayer bond orders larger than 0.1
B(  0-O ,  1-H ) :   1.0088 B(  0-O ,  2-H ) :   1.0083

FINAL SINGLE POINT ENERGY       -76.321158927800

DIPOLE MOMENT
-------------
                                X             Y             Z
Electronic contribution:     -0.13177      -0.16971      -0.00000
Nuclear contribution   :      0.61618       0.78852       0.00000
                        -----------------------------------------
Total Dipole Moment    :      0.48441       0.61881      -0.00000
                        -----------------------------------------
Magnitude (a.u.)       :      0.78586
Magnitude (Debye)      :      1.99750

VIBRATIONAL FREQUENCIES
-----------------------

   0:         0.00 cm**-1
   1:         0.00 cm**-1
   2:         0.00 cm**-1
   3:         0.00 cm**-1
   4:         0.00 cm**-1
   5:         0.00 cm**-1
   6:      1638.46 cm**-1
   7:      3787.96 cm**-1
   8:      3883.75 cm**-1

IR SPECTRUM
-----------

 Mode    freq (cm**-1)   T**2         TX         TY         TZ
-------------------------------------------------------------------
   6:      1638.46   55.476670  (  4.584857   5.869903  -0.000000)
   7:      3787.96    4.614833  (  1.369140   1.655381  -0.000000)
   8:      3883.75   26.171714  ( -4.022714   3.160614  -0.000000)

--------------------------
THERMOCHEMISTRY AT 298.15K
--------------------------

Temperature         ... 298.15 K
Pressure            ... 1.00 atm
Total Mass          ... 18.02 AMU

Throughout the following assumptions are being made:
  (1) The electronic state is orbitally nondegenerate
  (2) There are no thermally accessible electronically excited states
  (3) Hindered rotations indicated by low frequency modes are not
      treated as such but are treated as vibrations and this may
      cause some error
  (4) All equations used are the standard statistical mechanics
      equations for an ideal gas
  (5) All vibrations are strictly harmonic

freq.    1638.46  E(vib)   ...       0.00
freq.    3787.96  E(vib)   ...       0.00
freq.    3883.75  E(vib)   ...       0.00

------------
INNER ENERGY
------------

The inner energy is: U= E(el) + E(ZPE) + E(vib) + E(rot) + E(trans)
    E(el)   - is the total energy from the electronic structure calculation
              = E(kin-el) + E(nuc-el) + E(el-el) + E(nuc-nuc)
    E(ZPE)  - the the zero temperature vibrational energy from the frequency calculation
    E(vib)  - the the finite temperature correction to E(ZPE) due to population
              of excited vibrational states
    E(rot)  - is the rotational thermal energy
    E(trans)- is the translational thermal energy

Summary of contributions to the inner energy U:
Electronic energy                ...    -76.32115893 Eh
Zero point energy                ...      0.02121013 Eh      13.31 kcal/mol
Thermal vibrational correction   ...      0.00000275 Eh       0.00 kcal/mol
Thermal rotational correction    ...      0.00141627 Eh       0.89 kcal/mol
Thermal translational correction ...      0.00141627 Eh       0.89 kcal/mol
-----------------------------------------------------------------------
Total thermal energy                    -76.29711350 Eh

Summary of corrections to the electronic energy:
(perhaps to be used in another calculation)
Total thermal correction                  0.00283529 Eh       1.78 kcal/mol
Non-thermal (ZPE) correction              0.02121013 Eh      13.31 kcal/mol
-----------------------------------------------------------------------
Total correction                          0.02404543 Eh      15.09 kcal/mol

--------
ENTHALPY
--------

The enthalpy is H = U + kB*T
                kB is Boltzmann's constant
Total free energy                 ...    -76.29711350 Eh
Thermal Enthalpy correction       ...      0.00094421 Eh       0.59 kcal/mol
-----------------------------------------------------------------------
Total Enthalpy                    ...    -76.29616929 Eh

Vibrational entropy computed according to the QRRHO of S. Grimme
Chem.Eur.J. 2012 18 9955

-------
ENTROPY
-------

The entropy contributions are T*S = T*(S(el)+S(vib)+S(rot)+S(trans)
     S(el)   - electronic entropy
     S(vib)  - vibrational entropy
     S(rot)  - rotational entropy
     S(trans)- translational entropy
The entropies will be listed as mutliplied by the temperature to get
units of energy

Electronic entropy                ...      0.00000000 Eh      0.00 kcal/mol
Vibrational entropy               ...      0.00000310 Eh      0.00 kcal/mol
Rotational entropy                ...      0.00461423 Eh      2.90 kcal/mol
Translational entropy             ...      0.01644380 Eh     10.32 kcal/mol
-----------------------------------------------------------------------
Final entropy term                ...      0.02106113 Eh     13.22 kcal/mol

CAUTION: The rotational entropy is not quite correctly treated here
         because it includes a symmetry number that is not yet correctly
         implemented in ORCA!
For a nonlinear molecule the correct rotational entropy is:
    S(rot) = R*(ln(qrot/sn)+1.5)
    R    = 8.31441 J/mol/K = 1.987191683e-3 kcal/mol/K
    qrot =   88.7325280
    sn is the rotational symmetry number. We have assumed 3 here
       if it is different for your molecule then you should correct
       the printed rotational entropy by manually evaluating the equation
       as given above

For convenience we print out the resulting values for sn=1 - 12:
 sn= 1  qrot/sn=      88.7325 T*S(rot)=     3.55 kcal/mol T*S(tot)=    13.87 kcal/mol
 sn= 2  qrot/sn=      44.3663 T*S(rot)=     3.14 kcal/mol T*S(tot)=    13.46 kcal/mol
 sn= 3  qrot/sn=      29.5775 T*S(rot)=     2.90 kcal/mol T*S(tot)=    13.22 kcal/mol
 sn= 4  qrot/sn=      22.1831 T*S(rot)=     2.73 kcal/mol T*S(tot)=    13.05 kcal/mol
 sn= 5  qrot/sn=      17.7465 T*S(rot)=     2.59 kcal/mol T*S(tot)=    12.91 kcal/mol
 sn= 6  qrot/sn=      14.7888 T*S(rot)=     2.48 kcal/mol T*S(tot)=    12.81 kcal/mol
 sn= 7  qrot/sn=      12.6761 T*S(rot)=     2.39 kcal/mol T*S(tot)=    12.71 kcal/mol
 sn= 8  qrot/sn=      11.0916 T*S(rot)=     2.31 kcal/mol T*S(tot)=    12.63 kcal/mol
 sn= 9  qrot/sn=       9.8592 T*S(rot)=     2.24 kcal/mol T*S(tot)=    12.57 kcal/mol
 sn=10  qrot/sn=       8.8733 T*S(rot)=     2.18 kcal/mol T*S(tot)=    12.50 kcal/mol
 sn=11  qrot/sn=       8.0666 T*S(rot)=     2.13 kcal/mol T*S(tot)=    12.45 kcal/mol
 sn=12  qrot/sn=       7.3944 T*S(rot)=     2.07 kcal/mol T*S(tot)=    12.39 kcal/mol

-------------------
GIBBS FREE ENTHALPY
-------------------

The Gibbs free enthalpy is G = H - T*S

Total enthalpy                    ...    -76.29616929 Eh
Total entropy correction          ...     -0.02106113 Eh    -13.22 kcal/mol
-----------------------------------------------------------------------
Final Gibbs free enthalpy         ...    -76.31723042 Eh

For completeness - the Gibbs free enthalpy minus the electronic energy
G-E(el)                           ...      0.00392851 Eh      2.47 kcal/mol

                             ****ORCA TERMINATED NORMALLY****
TOTAL RUN TIME: 0 days 0 hours 0 minutes 16 seconds 720 msec
