                         Program Version 4.0.1.2 - RELEASE -
|  1> ! PAL4 B3LYP Def2-SVP Opt Freq
|  2>
|  3> #MeOH optimisation and frequency analysis
|  4>
|  5> *xyz 0 1
|  6>  C     0.000000     0.000000     0.000000
|  7>  O     0.000000     0.000000     1.400000
|  8>  H     1.026720     0.000000    -0.362996
|  9>  H    -0.513360    -0.889165    -0.363000
| 10>  H    -0.513360     0.889165    -0.363000
| 11>  H    -0.895669     0.000000     1.716667
| 12> *
| 13>
| 14>                          ****END OF INPUT****
 Total Charge           Charge          ....    0
 Multiplicity           Mult            ....    1
 Number of Electrons    NEL             ....   18
FINAL SINGLE POINT ENERGY      -115.563397215041
FINAL SINGLE POINT ENERGY      -115.565344458320
FINAL SINGLE POINT ENERGY      -115.565562965312
FINAL SINGLE POINT ENERGY      -115.565583403834
FINAL SINGLE POINT ENERGY      -115.565585571335
FINAL SINGLE POINT ENERGY      -115.565585668347
                    ***********************HURRAY********************

CARTESIAN COORDINATES (ANGSTROEM)
---------------------------------
  C     -0.017560    0.000000    0.017023
  O      0.018828    0.000000    1.423433
  H      1.022838   -0.000000   -0.343888
  H     -0.514771   -0.896006   -0.408626
  H     -0.514771    0.896006   -0.408626
  H     -0.890233   -0.000000    1.748355

 Multiplicity           Mult            ....    1
 Number of Electrons    NEL             ....   18
 Basis Dimension        Dim             ....   48

ORBITAL ENERGIES
----------------

  NO   OCC          E(Eh)            E(eV)
   0   2.0000     -19.119981      -520.2811
   1   2.0000     -10.224979      -278.2358
   2   2.0000      -0.997906       -27.1544
   3   2.0000      -0.666534       -18.1373
   4   2.0000      -0.501414       -13.6442
   5   2.0000      -0.430905       -11.7255
   6   2.0000      -0.418481       -11.3875
   7   2.0000      -0.324797        -8.8382
   8   2.0000      -0.263906        -7.1813
   9   0.0000       0.054810         1.4915
  10   0.0000       0.095041         2.5862
  11   0.0000       0.137075         3.7300
  12   0.0000       0.138167         3.7597
  13   0.0000       0.202481         5.5098

MULLIKEN ATOMIC CHARGES
-----------------------
   0 C :    0.152823
   1 O :   -0.329389
   2 H :    0.018646
   3 H :   -0.002206
   4 H :   -0.002206
   5 H :    0.162333
Sum of atomic charges:   -0.0000000

LOEWDIN ATOMIC CHARGES
----------------------
   0 C :    0.058892
   1 O :   -0.153578
   2 H :    0.019181
   3 H :    0.000270
   4 H :    0.000270
   5 H :    0.074965

  Mayer bond orders larger than 0.1
B(  0-C ,  1-O ) :   1.0461 B(  0-C ,  2-H ) :   0.9811 B(  0-C ,  3-H ) :   0.9689
B(  0-C ,  4-H ) :   0.9689 B(  1-O ,  5-H ) :   0.9866

FINAL SINGLE POINT ENERGY      -115.565585649578

DIPOLE MOMENT
-------------
                                X             Y             Z
Electronic contribution:      0.18508       0.00000       1.89687
Nuclear contribution   :     -0.74552      -0.00000      -2.19938
                        -----------------------------------------
Total Dipole Moment    :     -0.56044      -0.00000      -0.30252
                        -----------------------------------------
Magnitude (a.u.)       :      0.63687
Magnitude (Debye)      :      1.61880

VIBRATIONAL FREQUENCIES
-----------------------

   0:         0.00 cm**-1
   1:         0.00 cm**-1
   2:         0.00 cm**-1
   3:         0.00 cm**-1
   4:         0.00 cm**-1
   5:         0.00 cm**-1
   6:       332.81 cm**-1
   7:      1070.01 cm**-1
   8:      1107.99 cm**-1
   9:      1170.49 cm**-1
  10:      1364.56 cm**-1
  11:      1468.01 cm**-1
  12:      1474.58 cm**-1
  13:      1492.87 cm**-1
  14:      2959.51 cm**-1
  15:      3009.47 cm**-1
  16:      3105.79 cm**-1
  17:      3822.07 cm**-1

IR SPECTRUM
-----------

 Mode    freq (cm**-1)   T**2         TX         TY         TZ
-------------------------------------------------------------------
   6:       332.81  123.573128  ( -0.000000  11.116345   0.000000)
   7:      1070.01   88.234114  (  0.829824  -0.000000   9.356576)
   8:      1107.99   40.881888  ( -0.158014  -0.000000  -6.391942)
   9:      1170.49    0.813698  ( -0.000000  -0.902052  -0.000000)
  10:      1364.56   28.255761  (  0.767488   0.000000   5.259917)
  11:      1468.01    1.655512  ( -0.000000  -1.286667  -0.000000)
  12:      1474.58    6.069155  (  0.651888  -0.000000   2.375752)
  13:      1492.87    7.966775  (  1.310414   0.000000  -2.499918)
  14:      2959.51   67.595638  (  2.913984  -0.000002   7.687934)
  15:      3009.47   83.864414  ( -0.000000  -9.157752  -0.000001)
  16:      3105.79   30.976989  (  5.452325   0.000000  -1.117649)
  17:      3822.07   26.077331  ( -4.198862   0.000000   2.906353)

--------------------------
THERMOCHEMISTRY AT 298.15K
--------------------------

Temperature         ... 298.15 K
Pressure            ... 1.00 atm
Total Mass          ... 32.04 AMU

Throughout the following assumptions are being made:
  (1) The electronic state is orbitally nondegenerate
  (2) There are no thermally accessible electronically excited states
  (3) Hindered rotations indicated by low frequency modes are not
      treated as such but are treated as vibrations and this may
      cause some error
  (4) All equations used are the standard statistical mechanics
      equations for an ideal gas
  (5) All vibrations are strictly harmonic

freq.     332.81  E(vib)   ...       0.24
freq.    1070.01  E(vib)   ...       0.02
freq.    1107.99  E(vib)   ...       0.02
freq.    1170.49  E(vib)   ...       0.01
freq.    1364.56  E(vib)   ...       0.01
freq.    1468.01  E(vib)   ...       0.00
freq.    1474.58  E(vib)   ...       0.00
freq.    1492.87  E(vib)   ...       0.00
freq.    2959.51  E(vib)   ...       0.00
freq.    3009.47  E(vib)   ...       0.00
freq.    3105.79  E(vib)   ...       0.00
freq.    3822.07  E(vib)   ...       0.00

------------
INNER ENERGY
------------

The inner energy is: U= E(el) + E(ZPE) + E(vib) + E(rot) + E(trans)
    E(el)   - is the total energy from the electronic structure calculation
              = E(kin-el) + E(nuc-el) + E(el-el) + E(nuc-nuc)
    E(ZPE)  - the the zero temperature vibrational energy from the frequency calculation
    E(vib)  - the the finite temperature correction to E(ZPE) due to population
              of excited vibrational states
    E(rot)  - is the rotational thermal energy
    E(trans)- is the translational thermal energy

Summary of contributions to the inner energy U:
Electronic energy                ...   -115.56558565 Eh
Zero point energy                ...      0.05098122 Eh      31.99 kcal/mol
Thermal vibrational correction   ...      0.00047657 Eh       0.30 kcal/mol
Thermal rotational correction    ...      0.00141627 Eh       0.89 kcal/mol
Thermal translational correction ...      0.00141627 Eh       0.89 kcal/mol
-----------------------------------------------------------------------
Total thermal energy                   -115.51129531 Eh

Summary of corrections to the electronic energy:
(perhaps to be used in another calculation)
Total thermal correction                  0.00330911 Eh       2.08 kcal/mol
Non-thermal (ZPE) correction              0.05098122 Eh      31.99 kcal/mol
-----------------------------------------------------------------------
Total correction                          0.05429034 Eh      34.07 kcal/mol

--------
ENTHALPY
--------

The enthalpy is H = U + kB*T
                kB is Boltzmann's constant
Total free energy                 ...   -115.51129531 Eh
Thermal Enthalpy correction       ...      0.00094421 Eh       0.59 kcal/mol
-----------------------------------------------------------------------
Total Enthalpy                    ...   -115.51035111 Eh

Vibrational entropy computed according to the QRRHO of S. Grimme
Chem.Eur.J. 2012 18 9955

-------
ENTROPY
-------

The entropy contributions are T*S = T*(S(el)+S(vib)+S(rot)+S(trans)
     S(el)   - electronic entropy
     S(vib)  - vibrational entropy
     S(rot)  - rotational entropy
     S(trans)- translational entropy
The entropies will be listed as mutliplied by the temperature to get
units of energy

Electronic entropy                ...      0.00000000 Eh      0.00 kcal/mol
Vibrational entropy               ...      0.00070652 Eh      0.44 kcal/mol
Rotational entropy                ...      0.00798238 Eh      5.01 kcal/mol
Translational entropy             ...      0.01725935 Eh     10.83 kcal/mol
-----------------------------------------------------------------------
Final entropy term                ...      0.02594825 Eh     16.28 kcal/mol

CAUTION: The rotational entropy is not quite correctly treated here
         because it includes a symmetry number that is not yet correctly
         implemented in ORCA!
For a nonlinear molecule the correct rotational entropy is:
    S(rot) = R*(ln(qrot/sn)+1.5)
    R    = 8.31441 J/mol/K = 1.987191683e-3 kcal/mol/K
    qrot = 3142.9113056
    sn is the rotational symmetry number. We have assumed 3 here
       if it is different for your molecule then you should correct
       the printed rotational entropy by manually evaluating the equation
       as given above

For convenience we print out the resulting values for sn=1 - 12:
 sn= 1  qrot/sn=    3142.9113 T*S(rot)=     5.66 kcal/mol T*S(tot)=    16.93 kcal/mol
 sn= 2  qrot/sn=    1571.4557 T*S(rot)=     5.25 kcal/mol T*S(tot)=    16.52 kcal/mol
 sn= 3  qrot/sn=    1047.6371 T*S(rot)=     5.01 kcal/mol T*S(tot)=    16.28 kcal/mol
 sn= 4  qrot/sn=     785.7278 T*S(rot)=     4.84 kcal/mol T*S(tot)=    16.11 kcal/mol
 sn= 5  qrot/sn=     628.5823 T*S(rot)=     4.71 kcal/mol T*S(tot)=    15.98 kcal/mol
 sn= 6  qrot/sn=     523.8186 T*S(rot)=     4.60 kcal/mol T*S(tot)=    15.87 kcal/mol
 sn= 7  qrot/sn=     448.9873 T*S(rot)=     4.51 kcal/mol T*S(tot)=    15.78 kcal/mol
 sn= 8  qrot/sn=     392.8639 T*S(rot)=     4.43 kcal/mol T*S(tot)=    15.70 kcal/mol
 sn= 9  qrot/sn=     349.2124 T*S(rot)=     4.36 kcal/mol T*S(tot)=    15.63 kcal/mol
 sn=10  qrot/sn=     314.2911 T*S(rot)=     4.30 kcal/mol T*S(tot)=    15.57 kcal/mol
 sn=11  qrot/sn=     285.7192 T*S(rot)=     4.24 kcal/mol T*S(tot)=    15.51 kcal/mol
 sn=12  qrot/sn=     261.9093 T*S(rot)=     4.19 kcal/mol T*S(tot)=    15.46 kcal/mol

-------------------
GIBBS FREE ENTHALPY
-------------------

The Gibbs free enthalpy is G = H - T*S

Total enthalpy                    ...   -115.51035111 Eh
Total entropy correction          ...     -0.02594825 Eh    -16.28 kcal/mol
-----------------------------------------------------------------------
Final Gibbs free enthalpy         ...   -115.53629936 Eh

For completeness - the Gibbs free enthalpy minus the electronic energy
G-E(el)                           ...      0.02928629 Eh     18.38 kcal/mol

                             ****ORCA TERMINATED NORMALLY****
TOTAL RUN TIME: 0 days 0 hours 0 minutes 27 seconds 502 msec
